Title: *** SPICE deck for cell Sim_Matrix_4096{lay} from library pixel
Date: Mon Mar 02 17:11:08 2020
Plotname: Operating Point
Flags: real
No. Variables: 4192
No. Points:            1
Offset:   0.0000000000000000e+000
Command: Linear Technology Corporation LTspice IV
Variables:
	0	V(vdd)	voltage
	1	V(net@191#1matrix_1@0_out_0)	voltage
	2	V(vdd_reset)	voltage
	3	V(net@190)	voltage
	4	V(net@189)	voltage
	5	V(net@192#1matrix_1@0_out_1)	voltage
	6	V(net@187)	voltage
	7	V(net@188)	voltage
	8	V(net@193#1matrix_1@0_out_2)	voltage
	9	V(net@194)	voltage
	10	V(net@185)	voltage
	11	V(net@186)	voltage
	12	V(net@183)	voltage
	13	V(net@184)	voltage
	14	V(net@195#1matrix_1@0_out_4)	voltage
	15	V(net@196)	voltage
	16	V(net@197#1matrix_1@0_out_6)	voltage
	17	V(out7)	voltage
	18	V(net@181)	voltage
	19	V(net@182)	voltage
	20	V(net@179)	voltage
	21	V(net@180)	voltage
	22	V(net@177)	voltage
	23	V(net@178)	voltage
	24	V(net@175)	voltage
	25	V(net@176)	voltage
	26	V(net@199)	voltage
	27	V(net@200#1matrix_1@0_out_9)	voltage
	28	V(net@201)	voltage
	29	V(net@202#1matrix_1@0_out_11)	voltage
	30	V(net@203)	voltage
	31	V(net@204#1matrix_1@0_out_13)	voltage
	32	V(net@205)	voltage
	33	V(net@206#1matrix_1@0_out_15)	voltage
	34	V(net@173)	voltage
	35	V(net@174)	voltage
	36	V(net@171)	voltage
	37	V(net@172)	voltage
	38	V(net@169)	voltage
	39	V(net@170)	voltage
	40	V(net@167)	voltage
	41	V(net@168)	voltage
	42	V(net@165)	voltage
	43	V(net@166)	voltage
	44	V(net@163)	voltage
	45	V(net@164)	voltage
	46	V(net@161)	voltage
	47	V(net@162)	voltage
	48	V(net@159)	voltage
	49	V(net@160)	voltage
	50	V(net@207)	voltage
	51	V(net@208#1matrix_1@0_out_17)	voltage
	52	V(net@209)	voltage
	53	V(net@210#1matrix_1@0_out_19)	voltage
	54	V(net@211#1matrix_1@0_out_20)	voltage
	55	V(net@212)	voltage
	56	V(net@213#1matrix_1@0_out_22)	voltage
	57	V(net@214)	voltage
	58	V(net@215#1matrix_1@0_out_24)	voltage
	59	V(net@216)	voltage
	60	V(net@217#1matrix_1@0_out_26)	voltage
	61	V(net@218)	voltage
	62	V(net@219)	voltage
	63	V(net@220#1matrix_1@0_out_29)	voltage
	64	V(net@221)	voltage
	65	V(o1)	voltage
	66	V(matrix_1@0_fd)	voltage
	67	V(net@157)	voltage
	68	V(net@158)	voltage
	69	V(net@155)	voltage
	70	V(net@156)	voltage
	71	V(net@153)	voltage
	72	V(net@154)	voltage
	73	V(net@151)	voltage
	74	V(net@152)	voltage
	75	V(net@149)	voltage
	76	V(net@150)	voltage
	77	V(net@147)	voltage
	78	V(net@148)	voltage
	79	V(net@145)	voltage
	80	V(net@146)	voltage
	81	V(net@143)	voltage
	82	V(net@144)	voltage
	83	V(net@141)	voltage
	84	V(net@142)	voltage
	85	V(net@139)	voltage
	86	V(net@140)	voltage
	87	V(net@137)	voltage
	88	V(net@138)	voltage
	89	V(net@135)	voltage
	90	V(net@136)	voltage
	91	V(matrix_1@0_fd_1)	voltage
	92	V(net@133)	voltage
	93	V(net@134)	voltage
	94	V(net@131)	voltage
	95	V(net@132)	voltage
	96	V(net@129)	voltage
	97	V(net@130)	voltage
	98	V(net@127)	voltage
	99	V(net@128)	voltage
	100	V(net@223)	voltage
	101	V(net@190#1matrix_1@1_reset_31)	voltage
	102	V(net@189#1matrix_1@1_select_31)	voltage
	103	V(net@224#1matrix_1@1_out_1)	voltage
	104	V(net@187#1matrix_1@1_reset_30)	voltage
	105	V(net@188#1matrix_1@1_select_30)	voltage
	106	V(net@225)	voltage
	107	V(net@226#1matrix_1@1_out_3)	voltage
	108	V(net@185#1matrix_1@1_reset_29)	voltage
	109	V(net@186#1matrix_1@1_select_29)	voltage
	110	V(net@183#1matrix_1@1_reset_28)	voltage
	111	V(net@184#1matrix_1@1_select_28)	voltage
	112	V(net@227)	voltage
	113	V(net@228#1matrix_1@1_out_5)	voltage
	114	V(net@229)	voltage
	115	V(net@230#1matrix_1@1_out_7)	voltage
	116	V(net@181#1matrix_1@1_reset_27)	voltage
	117	V(net@182#1matrix_1@1_select_27)	voltage
	118	V(net@179#1matrix_1@1_reset_26)	voltage
	119	V(net@180#1matrix_1@1_select_26)	voltage
	120	V(net@177#1matrix_1@1_reset_25)	voltage
	121	V(net@178#1matrix_1@1_select_25)	voltage
	122	V(net@175#1matrix_1@1_reset_24)	voltage
	123	V(net@176#1matrix_1@1_select_24)	voltage
	124	V(net@231)	voltage
	125	V(net@232#1matrix_1@1_out_9)	voltage
	126	V(net@233)	voltage
	127	V(net@234#1matrix_1@1_out_11)	voltage
	128	V(net@235)	voltage
	129	V(net@236#1matrix_1@1_out_13)	voltage
	130	V(net@237)	voltage
	131	V(net@238#1matrix_1@1_out_15)	voltage
	132	V(net@173#1matrix_1@1_reset_23)	voltage
	133	V(net@174#1matrix_1@1_select_23)	voltage
	134	V(net@171#1matrix_1@1_reset_22)	voltage
	135	V(net@172#1matrix_1@1_select_22)	voltage
	136	V(net@169#1matrix_1@1_reset_21)	voltage
	137	V(net@170#1matrix_1@1_select_21)	voltage
	138	V(net@167#1matrix_1@1_reset_20)	voltage
	139	V(net@168#1matrix_1@1_select_20)	voltage
	140	V(net@165#1matrix_1@1_reset_19)	voltage
	141	V(net@166#1matrix_1@1_select_19)	voltage
	142	V(net@163#1matrix_1@1_reset_18)	voltage
	143	V(net@164#1matrix_1@1_select_18)	voltage
	144	V(net@161#1matrix_1@1_reset_17)	voltage
	145	V(net@162#1matrix_1@1_select_17)	voltage
	146	V(net@159#1matrix_1@1_reset_16)	voltage
	147	V(net@160#1matrix_1@1_select_16)	voltage
	148	V(net@239)	voltage
	149	V(net@240#1matrix_1@1_out_17)	voltage
	150	V(net@241#1matrix_1@1_out_18)	voltage
	151	V(net@242)	voltage
	152	V(net@243#1matrix_1@1_out_20)	voltage
	153	V(net@244)	voltage
	154	V(net@245#1matrix_1@1_out_22)	voltage
	155	V(net@246)	voltage
	156	V(net@247#1matrix_1@1_out_24)	voltage
	157	V(net@248)	voltage
	158	V(net@249#1matrix_1@1_out_26)	voltage
	159	V(net@250)	voltage
	160	V(net@251#1matrix_1@1_out_28)	voltage
	161	V(net@252)	voltage
	162	V(net@253#1matrix_1@1_out_30)	voltage
	163	V(net@254)	voltage
	164	V(matrix_1@1_fd)	voltage
	165	V(net@157#1matrix_1@1_reset_15)	voltage
	166	V(net@158#1matrix_1@1_select_15)	voltage
	167	V(net@155#1matrix_1@1_reset_14)	voltage
	168	V(net@156#1matrix_1@1_select_14)	voltage
	169	V(net@153#1matrix_1@1_reset_13)	voltage
	170	V(net@154#1matrix_1@1_select_13)	voltage
	171	V(net@151#1matrix_1@1_reset_12)	voltage
	172	V(net@152#1matrix_1@1_select_12)	voltage
	173	V(net@149#1matrix_1@1_reset_11)	voltage
	174	V(net@150#1matrix_1@1_select_11)	voltage
	175	V(net@147#1matrix_1@1_reset_10)	voltage
	176	V(net@148#1matrix_1@1_select_10)	voltage
	177	V(net@145#1matrix_1@1_reset_9)	voltage
	178	V(net@146#1matrix_1@1_select_9)	voltage
	179	V(net@143#1matrix_1@1_reset_8)	voltage
	180	V(net@144#1matrix_1@1_select_8)	voltage
	181	V(net@141#1matrix_1@1_reset_7)	voltage
	182	V(net@142#1matrix_1@1_select_7)	voltage
	183	V(net@139#1matrix_1@1_reset_6)	voltage
	184	V(net@140#1matrix_1@1_select_6)	voltage
	185	V(net@137#1matrix_1@1_reset_5)	voltage
	186	V(net@138#1matrix_1@1_select_5)	voltage
	187	V(net@135#1matrix_1@1_reset_4)	voltage
	188	V(net@136#1matrix_1@1_select_4)	voltage
	189	V(matrix_1@1_fd_1)	voltage
	190	V(net@133#1matrix_1@1_reset_3)	voltage
	191	V(net@134#1matrix_1@1_select_3)	voltage
	192	V(net@131#1matrix_1@1_reset_2)	voltage
	193	V(net@132#1matrix_1@1_select_2)	voltage
	194	V(net@129#1matrix_1@1_reset_1)	voltage
	195	V(net@130#1matrix_1@1_select_1)	voltage
	196	V(net@127#1matrix_1@1_reset_0)	voltage
	197	V(net@128#1matrix_1@1_select_0)	voltage
	198	V(net@191)	voltage
	199	V(net@126)	voltage
	200	V(net@125)	voltage
	201	V(net@192)	voltage
	202	V(net@123)	voltage
	203	V(net@124)	voltage
	204	V(net@193)	voltage
	205	V(net@194#1matrix_1@2_out_3)	voltage
	206	V(net@121)	voltage
	207	V(net@122)	voltage
	208	V(net@119)	voltage
	209	V(net@120)	voltage
	210	V(net@195)	voltage
	211	V(net@196#1matrix_1@2_out_5)	voltage
	212	V(net@197)	voltage
	213	V(out7#0matrix_1@2_out_7)	voltage
	214	V(net@117)	voltage
	215	V(net@118)	voltage
	216	V(net@115)	voltage
	217	V(net@116)	voltage
	218	V(net@113)	voltage
	219	V(net@114)	voltage
	220	V(net@96)	voltage
	221	V(net@97)	voltage
	222	V(net@199#1matrix_1@2_out_8)	voltage
	223	V(net@200)	voltage
	224	V(net@201#1matrix_1@2_out_10)	voltage
	225	V(net@202)	voltage
	226	V(net@203#1matrix_1@2_out_12)	voltage
	227	V(net@204)	voltage
	228	V(net@205#1matrix_1@2_out_14)	voltage
	229	V(net@206)	voltage
	230	V(net@94)	voltage
	231	V(net@95)	voltage
	232	V(net@92)	voltage
	233	V(net@93)	voltage
	234	V(net@90)	voltage
	235	V(net@91)	voltage
	236	V(net@88)	voltage
	237	V(net@89)	voltage
	238	V(net@86)	voltage
	239	V(net@87)	voltage
	240	V(net@84)	voltage
	241	V(net@85)	voltage
	242	V(net@82)	voltage
	243	V(net@83)	voltage
	244	V(net@80)	voltage
	245	V(net@81)	voltage
	246	V(net@207#1matrix_1@2_out_16)	voltage
	247	V(net@208)	voltage
	248	V(net@209#1matrix_1@2_out_18)	voltage
	249	V(net@210)	voltage
	250	V(net@211)	voltage
	251	V(net@212#1matrix_1@2_out_21)	voltage
	252	V(net@213)	voltage
	253	V(net@214#1matrix_1@2_out_23)	voltage
	254	V(net@215)	voltage
	255	V(net@216#1matrix_1@2_out_25)	voltage
	256	V(net@217)	voltage
	257	V(net@218#1matrix_1@2_out_27)	voltage
	258	V(net@219#1matrix_1@2_out_28)	voltage
	259	V(net@220)	voltage
	260	V(net@221#1matrix_1@2_out_30)	voltage
	261	V(o1#0matrix_1@2_out_31)	voltage
	262	V(fd_test)	voltage
	263	V(net@78)	voltage
	264	V(net@79)	voltage
	265	V(net@76)	voltage
	266	V(net@77)	voltage
	267	V(net@74)	voltage
	268	V(net@75)	voltage
	269	V(net@72)	voltage
	270	V(net@73)	voltage
	271	V(net@70)	voltage
	272	V(net@71)	voltage
	273	V(net@68)	voltage
	274	V(net@69)	voltage
	275	V(net@66)	voltage
	276	V(net@67)	voltage
	277	V(net@64)	voltage
	278	V(net@65)	voltage
	279	V(reset7)	voltage
	280	V(select7)	voltage
	281	V(net@35)	voltage
	282	V(net@36)	voltage
	283	V(net@33)	voltage
	284	V(net@34)	voltage
	285	V(net@31)	voltage
	286	V(net@32)	voltage
	287	V(fd_1)	voltage
	288	V(net@29)	voltage
	289	V(net@30)	voltage
	290	V(net@27)	voltage
	291	V(net@28)	voltage
	292	V(net@25)	voltage
	293	V(net@26)	voltage
	294	V(net@23)	voltage
	295	V(net@24)	voltage
	296	V(net@223#1matrix_1@3_out_0)	voltage
	297	V(net@126#1matrix_1@3_reset_31)	voltage
	298	V(net@125#1matrix_1@3_select_31)	voltage
	299	V(net@224)	voltage
	300	V(net@123#1matrix_1@3_reset_30)	voltage
	301	V(net@124#1matrix_1@3_select_30)	voltage
	302	V(net@225#1matrix_1@3_out_2)	voltage
	303	V(net@226)	voltage
	304	V(net@121#1matrix_1@3_reset_29)	voltage
	305	V(net@122#1matrix_1@3_select_29)	voltage
	306	V(net@119#1matrix_1@3_reset_28)	voltage
	307	V(net@120#1matrix_1@3_select_28)	voltage
	308	V(net@227#1matrix_1@3_out_4)	voltage
	309	V(net@228)	voltage
	310	V(net@229#1matrix_1@3_out_6)	voltage
	311	V(net@230)	voltage
	312	V(net@117#1matrix_1@3_reset_27)	voltage
	313	V(net@118#1matrix_1@3_select_27)	voltage
	314	V(net@115#1matrix_1@3_reset_26)	voltage
	315	V(net@116#1matrix_1@3_select_26)	voltage
	316	V(net@113#1matrix_1@3_reset_25)	voltage
	317	V(net@114#1matrix_1@3_select_25)	voltage
	318	V(net@96#1matrix_1@3_reset_24)	voltage
	319	V(net@97#1matrix_1@3_select_24)	voltage
	320	V(net@231#1matrix_1@3_out_8)	voltage
	321	V(net@232)	voltage
	322	V(net@233#1matrix_1@3_out_10)	voltage
	323	V(net@234)	voltage
	324	V(net@235#1matrix_1@3_out_12)	voltage
	325	V(net@236)	voltage
	326	V(net@237#1matrix_1@3_out_14)	voltage
	327	V(net@238)	voltage
	328	V(net@94#1matrix_1@3_reset_23)	voltage
	329	V(net@95#1matrix_1@3_select_23)	voltage
	330	V(net@92#1matrix_1@3_reset_22)	voltage
	331	V(net@93#1matrix_1@3_select_22)	voltage
	332	V(net@90#1matrix_1@3_reset_21)	voltage
	333	V(net@91#1matrix_1@3_select_21)	voltage
	334	V(net@88#1matrix_1@3_reset_20)	voltage
	335	V(net@89#1matrix_1@3_select_20)	voltage
	336	V(net@86#1matrix_1@3_reset_19)	voltage
	337	V(net@87#1matrix_1@3_select_19)	voltage
	338	V(net@84#1matrix_1@3_reset_18)	voltage
	339	V(net@85#1matrix_1@3_select_18)	voltage
	340	V(net@82#1matrix_1@3_reset_17)	voltage
	341	V(net@83#1matrix_1@3_select_17)	voltage
	342	V(net@80#1matrix_1@3_reset_16)	voltage
	343	V(net@81#1matrix_1@3_select_16)	voltage
	344	V(net@239#1matrix_1@3_out_16)	voltage
	345	V(net@240)	voltage
	346	V(net@241)	voltage
	347	V(net@242#1matrix_1@3_out_19)	voltage
	348	V(net@243)	voltage
	349	V(net@244#1matrix_1@3_out_21)	voltage
	350	V(net@245)	voltage
	351	V(net@246#1matrix_1@3_out_23)	voltage
	352	V(net@247)	voltage
	353	V(net@248#1matrix_1@3_out_25)	voltage
	354	V(net@249)	voltage
	355	V(net@250#1matrix_1@3_out_27)	voltage
	356	V(net@251)	voltage
	357	V(net@252#1matrix_1@3_out_29)	voltage
	358	V(net@253)	voltage
	359	V(net@254#1matrix_1@3_out_31)	voltage
	360	V(matrix_1@3_fd)	voltage
	361	V(net@78#1matrix_1@3_reset_15)	voltage
	362	V(net@79#1matrix_1@3_select_15)	voltage
	363	V(net@76#1matrix_1@3_reset_14)	voltage
	364	V(net@77#1matrix_1@3_select_14)	voltage
	365	V(net@74#1matrix_1@3_reset_13)	voltage
	366	V(net@75#1matrix_1@3_select_13)	voltage
	367	V(net@72#1matrix_1@3_reset_12)	voltage
	368	V(net@73#1matrix_1@3_select_12)	voltage
	369	V(net@70#1matrix_1@3_reset_11)	voltage
	370	V(net@71#1matrix_1@3_select_11)	voltage
	371	V(net@68#1matrix_1@3_reset_10)	voltage
	372	V(net@69#1matrix_1@3_select_10)	voltage
	373	V(net@66#1matrix_1@3_reset_9)	voltage
	374	V(net@67#1matrix_1@3_select_9)	voltage
	375	V(net@64#1matrix_1@3_reset_8)	voltage
	376	V(net@65#1matrix_1@3_select_8)	voltage
	377	V(reset7#1matrix_1@3_reset_7)	voltage
	378	V(select7#1matrix_1@3_select_7)	voltage
	379	V(net@35#1matrix_1@3_reset_6)	voltage
	380	V(net@36#1matrix_1@3_select_6)	voltage
	381	V(net@33#1matrix_1@3_reset_5)	voltage
	382	V(net@34#1matrix_1@3_select_5)	voltage
	383	V(net@31#1matrix_1@3_reset_4)	voltage
	384	V(net@32#1matrix_1@3_select_4)	voltage
	385	V(matrix_1@3_fd_1)	voltage
	386	V(net@29#1matrix_1@3_reset_3)	voltage
	387	V(net@30#1matrix_1@3_select_3)	voltage
	388	V(net@27#1matrix_1@3_reset_2)	voltage
	389	V(net@28#1matrix_1@3_select_2)	voltage
	390	V(net@25#1matrix_1@3_reset_1)	voltage
	391	V(net@26#1matrix_1@3_select_1)	voltage
	392	V(net@23#1matrix_1@3_reset_0)	voltage
	393	V(net@24#1matrix_1@3_select_0)	voltage
	394	V(out_final)	voltage
	395	V(g1)	voltage
	396	V(gate_column)	voltage
	397	V(net@1441)	voltage
	398	V(net@1451)	voltage
	399	V(net@1447)	voltage
	400	V(net@1457)	voltage
	401	V(net@1454)	voltage
	402	V(net@1424)	voltage
	403	V(net@1438)	voltage
	404	V(net@1435)	voltage
	405	V(net@1444)	voltage
	406	V(net@1362)	voltage
	407	V(net@1374)	voltage
	408	V(net@1370)	voltage
	409	V(net@1380)	voltage
	410	V(net@1377)	voltage
	411	V(net@1338)	voltage
	412	V(net@1357)	voltage
	413	V(net@1354)	voltage
	414	V(net@1365)	voltage
	415	V(net@1324)	voltage
	416	V(net@1335)	voltage
	417	V(net@1331)	voltage
	418	V(net@1343)	voltage
	419	V(d_column)	voltage
	420	V(net@1323)	voltage
	421	V(net@1317)	voltage
	422	V(net@1327)	voltage
	423	V(net@1405)	voltage
	424	V(net@1421)	voltage
	425	V(net@1416)	voltage
	426	V(net@1427)	voltage
	427	V(net@1400)	voltage
	428	V(net@1395)	voltage
	429	V(net@1408)	voltage
	430	V(net@1580)	voltage
	431	V(net@1595)	voltage
	432	V(net@1588)	voltage
	433	V(net@1601)	voltage
	434	V(net@1598)	voltage
	435	V(net@1559)	voltage
	436	V(net@1576)	voltage
	437	V(net@1573)	voltage
	438	V(net@1585)	voltage
	439	V(net@1508)	voltage
	440	V(net@1518)	voltage
	441	V(net@1515)	voltage
	442	V(net@1526)	voltage
	443	V(net@1523)	voltage
	444	V(net@1487)	voltage
	445	V(net@1504)	voltage
	446	V(net@1501)	voltage
	447	V(net@1512)	voltage
	448	V(net@1474)	voltage
	449	V(net@1483)	voltage
	450	V(net@1480)	voltage
	451	V(net@1490)	voltage
	452	V(net@1471)	voltage
	453	V(net@1468)	voltage
	454	V(net@1477)	voltage
	455	V(net@1545)	voltage
	456	V(net@1556)	voltage
	457	V(net@1553)	voltage
	458	V(net@1564)	voltage
	459	V(net@1542)	voltage
	460	V(net@1537)	voltage
	461	V(net@1548)	voltage
	462	V(net@1793)	voltage
	463	V(net@1805)	voltage
	464	V(net@1802)	voltage
	465	V(net@1817)	voltage
	466	V(net@1814)	voltage
	467	V(net@1774)	voltage
	468	V(net@1784)	voltage
	469	V(net@1781)	voltage
	470	V(net@1796)	voltage
	471	V(net@1695)	voltage
	472	V(net@1702)	voltage
	473	V(net@1705)	voltage
	474	V(net@1712)	voltage
	475	V(net@1709)	voltage
	476	V(net@1681)	voltage
	477	V(net@1688)	voltage
	478	V(net@1691)	voltage
	479	V(net@1698)	voltage
	480	V(net@1666)	voltage
	481	V(net@1674)	voltage
	482	V(net@1677)	voltage
	483	V(net@1684)	voltage
	484	V(net@1655)	voltage
	485	V(net@1658)	voltage
	486	V(net@1669)	voltage
	487	V(net@1750)	voltage
	488	V(net@1765)	voltage
	489	V(net@1762)	voltage
	490	V(net@1777)	voltage
	491	V(net@1744)	voltage
	492	V(net@1747)	voltage
	493	V(net@1753)	voltage
	494	V(net@2103)	voltage
	495	V(net@2118)	voltage
	496	V(net@2114)	voltage
	497	V(rst_column)	voltage
	498	V(clkb_column)	voltage
	499	V(clk_column)	voltage
	500	V(net@2131)	voltage
	501	V(net@2127)	voltage
	502	V(net@2080)	voltage
	503	V(net@2091)	voltage
	504	V(net@2087)	voltage
	505	V(net@2107)	voltage
	506	V(net@1997)	voltage
	507	V(net@2001)	voltage
	508	V(net@2004)	voltage
	509	V(net@2018)	voltage
	510	V(net@2013)	voltage
	511	V(net@1851)	voltage
	512	V(net@1983)	voltage
	513	V(net@1988)	voltage
	514	V(net@1987)	voltage
	515	V(net@1835)	voltage
	516	V(net@1845)	voltage
	517	V(net@1842)	voltage
	518	V(net@1854)	voltage
	519	V(net@1822)	voltage
	520	V(net@1825)	voltage
	521	V(net@1838)	voltage
	522	V(net@2039)	voltage
	523	V(net@2045)	voltage
	524	V(net@2068)	voltage
	525	V(net@2074)	voltage
	526	V(net@2029)	voltage
	527	V(net@2025)	voltage
	528	V(net@2042)	voltage
	529	V(rst_select)	voltage
	530	V(clkb_select)	voltage
	531	V(clk_select)	voltage
	532	V(rst_reset)	voltage
	533	V(clkb_reset)	voltage
	534	V(clk_reset)	voltage
	535	V(d_select)	voltage
	536	V(d_reset)	voltage
	537	V(net@23##0)	voltage
	538	V(net@23##1)	voltage
	539	V(net@23##2)	voltage
	540	V(net@24##0)	voltage
	541	V(net@24##1)	voltage
	542	V(net@24##2)	voltage
	543	V(net@25##0)	voltage
	544	V(net@25##1)	voltage
	545	V(net@25##2)	voltage
	546	V(net@26##0)	voltage
	547	V(net@26##1)	voltage
	548	V(net@26##2)	voltage
	549	V(net@27##0)	voltage
	550	V(net@27##1)	voltage
	551	V(net@27##2)	voltage
	552	V(net@28##0)	voltage
	553	V(net@28##1)	voltage
	554	V(net@28##2)	voltage
	555	V(net@29##0)	voltage
	556	V(net@29##1)	voltage
	557	V(net@29##2)	voltage
	558	V(net@30##0)	voltage
	559	V(net@30##1)	voltage
	560	V(net@30##2)	voltage
	561	V(net@31##0)	voltage
	562	V(net@31##1)	voltage
	563	V(net@31##2)	voltage
	564	V(net@32##0)	voltage
	565	V(net@32##1)	voltage
	566	V(net@32##2)	voltage
	567	V(net@33##0)	voltage
	568	V(net@33##1)	voltage
	569	V(net@33##2)	voltage
	570	V(net@34##0)	voltage
	571	V(net@34##1)	voltage
	572	V(net@34##2)	voltage
	573	V(net@35##0)	voltage
	574	V(net@35##1)	voltage
	575	V(net@35##2)	voltage
	576	V(net@36##0)	voltage
	577	V(net@36##1)	voltage
	578	V(net@36##2)	voltage
	579	V(reset7##0)	voltage
	580	V(reset7##1)	voltage
	581	V(reset7##2)	voltage
	582	V(select7##0)	voltage
	583	V(select7##1)	voltage
	584	V(select7##2)	voltage
	585	V(net@64##0)	voltage
	586	V(net@64##1)	voltage
	587	V(net@64##2)	voltage
	588	V(net@65##0)	voltage
	589	V(net@65##1)	voltage
	590	V(net@65##2)	voltage
	591	V(net@66##0)	voltage
	592	V(net@66##1)	voltage
	593	V(net@66##2)	voltage
	594	V(net@67##0)	voltage
	595	V(net@67##1)	voltage
	596	V(net@67##2)	voltage
	597	V(net@68##0)	voltage
	598	V(net@68##1)	voltage
	599	V(net@68##2)	voltage
	600	V(net@69##0)	voltage
	601	V(net@69##1)	voltage
	602	V(net@69##2)	voltage
	603	V(net@70##0)	voltage
	604	V(net@70##1)	voltage
	605	V(net@70##2)	voltage
	606	V(net@71##0)	voltage
	607	V(net@71##1)	voltage
	608	V(net@71##2)	voltage
	609	V(net@72##0)	voltage
	610	V(net@72##1)	voltage
	611	V(net@72##2)	voltage
	612	V(net@73##0)	voltage
	613	V(net@73##1)	voltage
	614	V(net@73##2)	voltage
	615	V(net@74##0)	voltage
	616	V(net@74##1)	voltage
	617	V(net@74##2)	voltage
	618	V(net@75##0)	voltage
	619	V(net@75##1)	voltage
	620	V(net@75##2)	voltage
	621	V(net@76##0)	voltage
	622	V(net@76##1)	voltage
	623	V(net@76##2)	voltage
	624	V(net@77##0)	voltage
	625	V(net@77##1)	voltage
	626	V(net@77##2)	voltage
	627	V(net@78##0)	voltage
	628	V(net@78##1)	voltage
	629	V(net@78##2)	voltage
	630	V(net@79##0)	voltage
	631	V(net@79##1)	voltage
	632	V(net@79##2)	voltage
	633	V(net@80##0)	voltage
	634	V(net@80##1)	voltage
	635	V(net@80##2)	voltage
	636	V(net@81##0)	voltage
	637	V(net@81##1)	voltage
	638	V(net@81##2)	voltage
	639	V(net@82##0)	voltage
	640	V(net@82##1)	voltage
	641	V(net@82##2)	voltage
	642	V(net@83##0)	voltage
	643	V(net@83##1)	voltage
	644	V(net@83##2)	voltage
	645	V(net@84##0)	voltage
	646	V(net@84##1)	voltage
	647	V(net@84##2)	voltage
	648	V(net@85##0)	voltage
	649	V(net@85##1)	voltage
	650	V(net@85##2)	voltage
	651	V(net@86##0)	voltage
	652	V(net@86##1)	voltage
	653	V(net@86##2)	voltage
	654	V(net@87##0)	voltage
	655	V(net@87##1)	voltage
	656	V(net@87##2)	voltage
	657	V(net@88##0)	voltage
	658	V(net@88##1)	voltage
	659	V(net@88##2)	voltage
	660	V(net@89##0)	voltage
	661	V(net@89##1)	voltage
	662	V(net@89##2)	voltage
	663	V(net@90##0)	voltage
	664	V(net@90##1)	voltage
	665	V(net@90##2)	voltage
	666	V(net@91##0)	voltage
	667	V(net@91##1)	voltage
	668	V(net@91##2)	voltage
	669	V(net@92##0)	voltage
	670	V(net@92##1)	voltage
	671	V(net@92##2)	voltage
	672	V(net@93##0)	voltage
	673	V(net@93##1)	voltage
	674	V(net@93##2)	voltage
	675	V(net@94##0)	voltage
	676	V(net@94##1)	voltage
	677	V(net@94##2)	voltage
	678	V(net@95##0)	voltage
	679	V(net@95##1)	voltage
	680	V(net@95##2)	voltage
	681	V(net@96##0)	voltage
	682	V(net@96##1)	voltage
	683	V(net@96##2)	voltage
	684	V(net@97##0)	voltage
	685	V(net@97##1)	voltage
	686	V(net@97##2)	voltage
	687	V(net@113##0)	voltage
	688	V(net@113##1)	voltage
	689	V(net@113##2)	voltage
	690	V(net@114##0)	voltage
	691	V(net@114##1)	voltage
	692	V(net@114##2)	voltage
	693	V(net@115##0)	voltage
	694	V(net@115##1)	voltage
	695	V(net@115##2)	voltage
	696	V(net@116##0)	voltage
	697	V(net@116##1)	voltage
	698	V(net@116##2)	voltage
	699	V(net@117##0)	voltage
	700	V(net@117##1)	voltage
	701	V(net@117##2)	voltage
	702	V(net@118##0)	voltage
	703	V(net@118##1)	voltage
	704	V(net@118##2)	voltage
	705	V(net@119##0)	voltage
	706	V(net@119##1)	voltage
	707	V(net@119##2)	voltage
	708	V(net@120##0)	voltage
	709	V(net@120##1)	voltage
	710	V(net@120##2)	voltage
	711	V(net@121##0)	voltage
	712	V(net@121##1)	voltage
	713	V(net@121##2)	voltage
	714	V(net@122##0)	voltage
	715	V(net@122##1)	voltage
	716	V(net@122##2)	voltage
	717	V(net@123##0)	voltage
	718	V(net@123##1)	voltage
	719	V(net@123##2)	voltage
	720	V(net@124##0)	voltage
	721	V(net@124##1)	voltage
	722	V(net@124##2)	voltage
	723	V(net@125##0)	voltage
	724	V(net@125##1)	voltage
	725	V(net@125##2)	voltage
	726	V(net@126##0)	voltage
	727	V(net@126##1)	voltage
	728	V(net@126##2)	voltage
	729	V(net@127##0)	voltage
	730	V(net@127##1)	voltage
	731	V(net@127##2)	voltage
	732	V(net@128##0)	voltage
	733	V(net@128##1)	voltage
	734	V(net@128##2)	voltage
	735	V(net@129##0)	voltage
	736	V(net@129##1)	voltage
	737	V(net@129##2)	voltage
	738	V(net@130##0)	voltage
	739	V(net@130##1)	voltage
	740	V(net@130##2)	voltage
	741	V(net@131##0)	voltage
	742	V(net@131##1)	voltage
	743	V(net@131##2)	voltage
	744	V(net@132##0)	voltage
	745	V(net@132##1)	voltage
	746	V(net@132##2)	voltage
	747	V(net@133##0)	voltage
	748	V(net@133##1)	voltage
	749	V(net@133##2)	voltage
	750	V(net@134##0)	voltage
	751	V(net@134##1)	voltage
	752	V(net@134##2)	voltage
	753	V(net@135##0)	voltage
	754	V(net@135##1)	voltage
	755	V(net@135##2)	voltage
	756	V(net@136##0)	voltage
	757	V(net@136##1)	voltage
	758	V(net@136##2)	voltage
	759	V(net@137##0)	voltage
	760	V(net@137##1)	voltage
	761	V(net@137##2)	voltage
	762	V(net@138##0)	voltage
	763	V(net@138##1)	voltage
	764	V(net@138##2)	voltage
	765	V(net@139##0)	voltage
	766	V(net@139##1)	voltage
	767	V(net@139##2)	voltage
	768	V(net@140##0)	voltage
	769	V(net@140##1)	voltage
	770	V(net@140##2)	voltage
	771	V(net@141##0)	voltage
	772	V(net@141##1)	voltage
	773	V(net@141##2)	voltage
	774	V(net@142##0)	voltage
	775	V(net@142##1)	voltage
	776	V(net@142##2)	voltage
	777	V(net@143##0)	voltage
	778	V(net@143##1)	voltage
	779	V(net@143##2)	voltage
	780	V(net@144##0)	voltage
	781	V(net@144##1)	voltage
	782	V(net@144##2)	voltage
	783	V(net@145##0)	voltage
	784	V(net@145##1)	voltage
	785	V(net@145##2)	voltage
	786	V(net@146##0)	voltage
	787	V(net@146##1)	voltage
	788	V(net@146##2)	voltage
	789	V(net@147##0)	voltage
	790	V(net@147##1)	voltage
	791	V(net@147##2)	voltage
	792	V(net@148##0)	voltage
	793	V(net@148##1)	voltage
	794	V(net@148##2)	voltage
	795	V(net@149##0)	voltage
	796	V(net@149##1)	voltage
	797	V(net@149##2)	voltage
	798	V(net@150##0)	voltage
	799	V(net@150##1)	voltage
	800	V(net@150##2)	voltage
	801	V(net@151##0)	voltage
	802	V(net@151##1)	voltage
	803	V(net@151##2)	voltage
	804	V(net@152##0)	voltage
	805	V(net@152##1)	voltage
	806	V(net@152##2)	voltage
	807	V(net@153##0)	voltage
	808	V(net@153##1)	voltage
	809	V(net@153##2)	voltage
	810	V(net@154##0)	voltage
	811	V(net@154##1)	voltage
	812	V(net@154##2)	voltage
	813	V(net@155##0)	voltage
	814	V(net@155##1)	voltage
	815	V(net@155##2)	voltage
	816	V(net@156##0)	voltage
	817	V(net@156##1)	voltage
	818	V(net@156##2)	voltage
	819	V(net@157##0)	voltage
	820	V(net@157##1)	voltage
	821	V(net@157##2)	voltage
	822	V(net@158##0)	voltage
	823	V(net@158##1)	voltage
	824	V(net@158##2)	voltage
	825	V(net@159##0)	voltage
	826	V(net@159##1)	voltage
	827	V(net@159##2)	voltage
	828	V(net@160##0)	voltage
	829	V(net@160##1)	voltage
	830	V(net@160##2)	voltage
	831	V(net@161##0)	voltage
	832	V(net@161##1)	voltage
	833	V(net@161##2)	voltage
	834	V(net@162##0)	voltage
	835	V(net@162##1)	voltage
	836	V(net@162##2)	voltage
	837	V(net@163##0)	voltage
	838	V(net@163##1)	voltage
	839	V(net@163##2)	voltage
	840	V(net@164##0)	voltage
	841	V(net@164##1)	voltage
	842	V(net@164##2)	voltage
	843	V(net@165##0)	voltage
	844	V(net@165##1)	voltage
	845	V(net@165##2)	voltage
	846	V(net@166##0)	voltage
	847	V(net@166##1)	voltage
	848	V(net@166##2)	voltage
	849	V(net@167##0)	voltage
	850	V(net@167##1)	voltage
	851	V(net@167##2)	voltage
	852	V(net@168##0)	voltage
	853	V(net@168##1)	voltage
	854	V(net@168##2)	voltage
	855	V(net@169##0)	voltage
	856	V(net@169##1)	voltage
	857	V(net@169##2)	voltage
	858	V(net@170##0)	voltage
	859	V(net@170##1)	voltage
	860	V(net@170##2)	voltage
	861	V(net@171##0)	voltage
	862	V(net@171##1)	voltage
	863	V(net@171##2)	voltage
	864	V(net@172##0)	voltage
	865	V(net@172##1)	voltage
	866	V(net@172##2)	voltage
	867	V(net@173##0)	voltage
	868	V(net@173##1)	voltage
	869	V(net@173##2)	voltage
	870	V(net@174##0)	voltage
	871	V(net@174##1)	voltage
	872	V(net@174##2)	voltage
	873	V(net@175##0)	voltage
	874	V(net@175##1)	voltage
	875	V(net@175##2)	voltage
	876	V(net@176##0)	voltage
	877	V(net@176##1)	voltage
	878	V(net@176##2)	voltage
	879	V(net@177##0)	voltage
	880	V(net@177##1)	voltage
	881	V(net@177##2)	voltage
	882	V(net@178##0)	voltage
	883	V(net@178##1)	voltage
	884	V(net@178##2)	voltage
	885	V(net@179##0)	voltage
	886	V(net@179##1)	voltage
	887	V(net@179##2)	voltage
	888	V(net@180##0)	voltage
	889	V(net@180##1)	voltage
	890	V(net@180##2)	voltage
	891	V(net@181##0)	voltage
	892	V(net@181##1)	voltage
	893	V(net@181##2)	voltage
	894	V(net@182##0)	voltage
	895	V(net@182##1)	voltage
	896	V(net@182##2)	voltage
	897	V(net@183##0)	voltage
	898	V(net@183##1)	voltage
	899	V(net@183##2)	voltage
	900	V(net@184##0)	voltage
	901	V(net@184##1)	voltage
	902	V(net@184##2)	voltage
	903	V(net@185##0)	voltage
	904	V(net@185##1)	voltage
	905	V(net@185##2)	voltage
	906	V(net@186##0)	voltage
	907	V(net@186##1)	voltage
	908	V(net@186##2)	voltage
	909	V(net@187##0)	voltage
	910	V(net@187##1)	voltage
	911	V(net@187##2)	voltage
	912	V(net@188##0)	voltage
	913	V(net@188##1)	voltage
	914	V(net@188##2)	voltage
	915	V(net@189##0)	voltage
	916	V(net@189##1)	voltage
	917	V(net@189##2)	voltage
	918	V(net@190##0)	voltage
	919	V(net@190##1)	voltage
	920	V(net@190##2)	voltage
	921	V(net@191##0)	voltage
	922	V(net@191##1)	voltage
	923	V(net@191##2)	voltage
	924	V(net@192##0)	voltage
	925	V(net@192##1)	voltage
	926	V(net@192##2)	voltage
	927	V(net@193##0)	voltage
	928	V(net@193##1)	voltage
	929	V(net@193##2)	voltage
	930	V(net@194##0)	voltage
	931	V(net@194##1)	voltage
	932	V(net@194##2)	voltage
	933	V(net@195##0)	voltage
	934	V(net@195##1)	voltage
	935	V(net@195##2)	voltage
	936	V(net@196##0)	voltage
	937	V(net@196##1)	voltage
	938	V(net@196##2)	voltage
	939	V(net@197##0)	voltage
	940	V(net@197##1)	voltage
	941	V(net@197##2)	voltage
	942	V(out7##0)	voltage
	943	V(out7##1)	voltage
	944	V(out7##2)	voltage
	945	V(net@199##0)	voltage
	946	V(net@199##1)	voltage
	947	V(net@199##2)	voltage
	948	V(net@200##0)	voltage
	949	V(net@200##1)	voltage
	950	V(net@200##2)	voltage
	951	V(net@201##0)	voltage
	952	V(net@201##1)	voltage
	953	V(net@201##2)	voltage
	954	V(net@202##0)	voltage
	955	V(net@202##1)	voltage
	956	V(net@202##2)	voltage
	957	V(net@203##0)	voltage
	958	V(net@203##1)	voltage
	959	V(net@203##2)	voltage
	960	V(net@204##0)	voltage
	961	V(net@204##1)	voltage
	962	V(net@204##2)	voltage
	963	V(net@205##0)	voltage
	964	V(net@205##1)	voltage
	965	V(net@205##2)	voltage
	966	V(net@206##0)	voltage
	967	V(net@206##1)	voltage
	968	V(net@206##2)	voltage
	969	V(net@207##0)	voltage
	970	V(net@207##1)	voltage
	971	V(net@207##2)	voltage
	972	V(net@208##0)	voltage
	973	V(net@208##1)	voltage
	974	V(net@208##2)	voltage
	975	V(net@209##0)	voltage
	976	V(net@209##1)	voltage
	977	V(net@209##2)	voltage
	978	V(net@210##0)	voltage
	979	V(net@210##1)	voltage
	980	V(net@210##2)	voltage
	981	V(net@211##0)	voltage
	982	V(net@211##1)	voltage
	983	V(net@211##2)	voltage
	984	V(net@212##0)	voltage
	985	V(net@212##1)	voltage
	986	V(net@212##2)	voltage
	987	V(net@213##0)	voltage
	988	V(net@213##1)	voltage
	989	V(net@213##2)	voltage
	990	V(net@214##0)	voltage
	991	V(net@214##1)	voltage
	992	V(net@214##2)	voltage
	993	V(net@215##0)	voltage
	994	V(net@215##1)	voltage
	995	V(net@215##2)	voltage
	996	V(net@216##0)	voltage
	997	V(net@216##1)	voltage
	998	V(net@216##2)	voltage
	999	V(net@217##0)	voltage
	1000	V(net@217##1)	voltage
	1001	V(net@217##2)	voltage
	1002	V(net@218##0)	voltage
	1003	V(net@218##1)	voltage
	1004	V(net@218##2)	voltage
	1005	V(net@219##0)	voltage
	1006	V(net@219##1)	voltage
	1007	V(net@219##2)	voltage
	1008	V(net@220##0)	voltage
	1009	V(net@220##1)	voltage
	1010	V(net@220##2)	voltage
	1011	V(net@221##0)	voltage
	1012	V(net@221##1)	voltage
	1013	V(net@221##2)	voltage
	1014	V(o1#0matrix_1@2_out_31##0)	voltage
	1015	V(o1#0matrix_1@2_out_31##1)	voltage
	1016	V(o1#0matrix_1@2_out_31##2)	voltage
	1017	V(net@223##0)	voltage
	1018	V(net@223##1)	voltage
	1019	V(net@223##2)	voltage