Title: *** SPICE deck for cell Simulacion_Matrix_4096{lay} from library pixel
Date: Mon Jan 20 15:52:40 2020
Plotname: Operating Point
Flags: real
No. Variables: 3124
No. Points:            1
Offset:   0.0000000000000000e+000
Command: Linear Technology Corporation LTspice IV
Variables:
	0	V(vdd)	voltage
	1	V(out_0)	voltage
	2	V(vdd_reset)	voltage
	3	V(reset_63)	voltage
	4	V(select_63)	voltage
	5	V(out_1)	voltage
	6	V(reset_62)	voltage
	7	V(select_62)	voltage
	8	V(out_2)	voltage
	9	V(out_3)	voltage
	10	V(reset_61)	voltage
	11	V(select_61)	voltage
	12	V(reset_60)	voltage
	13	V(select_60)	voltage
	14	V(out_4)	voltage
	15	V(out_5)	voltage
	16	V(out_6)	voltage
	17	V(out_7)	voltage
	18	V(reset_59)	voltage
	19	V(select_59)	voltage
	20	V(reset_58)	voltage
	21	V(select_58)	voltage
	22	V(reset_57)	voltage
	23	V(select_57)	voltage
	24	V(reset_56)	voltage
	25	V(select_56)	voltage
	26	V(out_8)	voltage
	27	V(out_9)	voltage
	28	V(out_10)	voltage
	29	V(out_11)	voltage
	30	V(out_12)	voltage
	31	V(out_13)	voltage
	32	V(out_14)	voltage
	33	V(out_15)	voltage
	34	V(reset_55)	voltage
	35	V(select_55)	voltage
	36	V(reset_54)	voltage
	37	V(select_54)	voltage
	38	V(reset_53)	voltage
	39	V(select_53)	voltage
	40	V(reset_52)	voltage
	41	V(select_52)	voltage
	42	V(reset_51)	voltage
	43	V(select_51)	voltage
	44	V(reset_50)	voltage
	45	V(select_50)	voltage
	46	V(reset_49)	voltage
	47	V(select_49)	voltage
	48	V(reset_48)	voltage
	49	V(select_48)	voltage
	50	V(out_16)	voltage
	51	V(out_17)	voltage
	52	V(out_18)	voltage
	53	V(out_19)	voltage
	54	V(out_20)	voltage
	55	V(out_21)	voltage
	56	V(out_22)	voltage
	57	V(out_23)	voltage
	58	V(out_24)	voltage
	59	V(out_25)	voltage
	60	V(out_26)	voltage
	61	V(out_27)	voltage
	62	V(out_28)	voltage
	63	V(out_29)	voltage
	64	V(out_30)	voltage
	65	V(out_31)	voltage
	66	V(reset_47)	voltage
	67	V(select_47)	voltage
	68	V(reset_46)	voltage
	69	V(select_46)	voltage
	70	V(reset_45)	voltage
	71	V(select_45)	voltage
	72	V(reset_44)	voltage
	73	V(select_44)	voltage
	74	V(reset_43)	voltage
	75	V(select_43)	voltage
	76	V(reset_42)	voltage
	77	V(select_42)	voltage
	78	V(reset_41)	voltage
	79	V(select_41)	voltage
	80	V(reset_40)	voltage
	81	V(select_40)	voltage
	82	V(reset_39)	voltage
	83	V(select_39)	voltage
	84	V(reset_38)	voltage
	85	V(select_38)	voltage
	86	V(reset_37)	voltage
	87	V(select_37)	voltage
	88	V(reset_36)	voltage
	89	V(select_36)	voltage
	90	V(reset_35)	voltage
	91	V(select_35)	voltage
	92	V(reset_34)	voltage
	93	V(select_34)	voltage
	94	V(reset_33)	voltage
	95	V(select_33)	voltage
	96	V(reset_32)	voltage
	97	V(select_32)	voltage
	98	V(out_32)	voltage
	99	V(reset_63#0matrix_1@1_reset_31)	voltage
	100	V(select_63#0matrix_1@1_select_31)	voltage
	101	V(out_33)	voltage
	102	V(reset_62#0matrix_1@1_reset_30)	voltage
	103	V(select_62#0matrix_1@1_select_30)	voltage
	104	V(out_34)	voltage
	105	V(out_35)	voltage
	106	V(reset_61#0matrix_1@1_reset_29)	voltage
	107	V(select_61#0matrix_1@1_select_29)	voltage
	108	V(reset_60#0matrix_1@1_reset_28)	voltage
	109	V(select_60#0matrix_1@1_select_28)	voltage
	110	V(out_36)	voltage
	111	V(out_37)	voltage
	112	V(out_38)	voltage
	113	V(out_39)	voltage
	114	V(reset_59#0matrix_1@1_reset_27)	voltage
	115	V(select_59#0matrix_1@1_select_27)	voltage
	116	V(reset_58#0matrix_1@1_reset_26)	voltage
	117	V(select_58#0matrix_1@1_select_26)	voltage
	118	V(reset_57#0matrix_1@1_reset_25)	voltage
	119	V(select_57#0matrix_1@1_select_25)	voltage
	120	V(reset_56#0matrix_1@1_reset_24)	voltage
	121	V(select_56#0matrix_1@1_select_24)	voltage
	122	V(out_40)	voltage
	123	V(out_41)	voltage
	124	V(out_42)	voltage
	125	V(out_43)	voltage
	126	V(out_44)	voltage
	127	V(out_45)	voltage
	128	V(out_46)	voltage
	129	V(out_47)	voltage
	130	V(reset_55#0matrix_1@1_reset_23)	voltage
	131	V(select_55#0matrix_1@1_select_23)	voltage
	132	V(reset_54#0matrix_1@1_reset_22)	voltage
	133	V(select_54#0matrix_1@1_select_22)	voltage
	134	V(reset_53#0matrix_1@1_reset_21)	voltage
	135	V(select_53#0matrix_1@1_select_21)	voltage
	136	V(reset_52#0matrix_1@1_reset_20)	voltage
	137	V(select_52#0matrix_1@1_select_20)	voltage
	138	V(reset_51#0matrix_1@1_reset_19)	voltage
	139	V(select_51#0matrix_1@1_select_19)	voltage
	140	V(reset_50#0matrix_1@1_reset_18)	voltage
	141	V(select_50#0matrix_1@1_select_18)	voltage
	142	V(reset_49#0matrix_1@1_reset_17)	voltage
	143	V(select_49#0matrix_1@1_select_17)	voltage
	144	V(reset_48#0matrix_1@1_reset_16)	voltage
	145	V(select_48#0matrix_1@1_select_16)	voltage
	146	V(out_48)	voltage
	147	V(out_49)	voltage
	148	V(out_50)	voltage
	149	V(out_51)	voltage
	150	V(out_52)	voltage
	151	V(out_53)	voltage
	152	V(out_54)	voltage
	153	V(out_55)	voltage
	154	V(out_56)	voltage
	155	V(out_57)	voltage
	156	V(out_58)	voltage
	157	V(out_59)	voltage
	158	V(out_60)	voltage
	159	V(out_61)	voltage
	160	V(out_62)	voltage
	161	V(out_63)	voltage
	162	V(reset_47#0matrix_1@1_reset_15)	voltage
	163	V(select_47#0matrix_1@1_select_15)	voltage
	164	V(reset_46#0matrix_1@1_reset_14)	voltage
	165	V(select_46#0matrix_1@1_select_14)	voltage
	166	V(reset_45#0matrix_1@1_reset_13)	voltage
	167	V(select_45#0matrix_1@1_select_13)	voltage
	168	V(reset_44#0matrix_1@1_reset_12)	voltage
	169	V(select_44#0matrix_1@1_select_12)	voltage
	170	V(reset_43#0matrix_1@1_reset_11)	voltage
	171	V(select_43#0matrix_1@1_select_11)	voltage
	172	V(reset_42#0matrix_1@1_reset_10)	voltage
	173	V(select_42#0matrix_1@1_select_10)	voltage
	174	V(reset_41#0matrix_1@1_reset_9)	voltage
	175	V(select_41#0matrix_1@1_select_9)	voltage
	176	V(reset_40#0matrix_1@1_reset_8)	voltage
	177	V(select_40#0matrix_1@1_select_8)	voltage
	178	V(reset_39#0matrix_1@1_reset_7)	voltage
	179	V(select_39#0matrix_1@1_select_7)	voltage
	180	V(reset_38#0matrix_1@1_reset_6)	voltage
	181	V(select_38#0matrix_1@1_select_6)	voltage
	182	V(reset_37#0matrix_1@1_reset_5)	voltage
	183	V(select_37#0matrix_1@1_select_5)	voltage
	184	V(reset_36#0matrix_1@1_reset_4)	voltage
	185	V(select_36#0matrix_1@1_select_4)	voltage
	186	V(reset_35#0matrix_1@1_reset_3)	voltage
	187	V(select_35#0matrix_1@1_select_3)	voltage
	188	V(reset_34#0matrix_1@1_reset_2)	voltage
	189	V(select_34#0matrix_1@1_select_2)	voltage
	190	V(reset_33#0matrix_1@1_reset_1)	voltage
	191	V(select_33#0matrix_1@1_select_1)	voltage
	192	V(reset_32#0matrix_1@1_reset_0)	voltage
	193	V(select_32#0matrix_1@1_select_0)	voltage
	194	V(out_0#0matrix_1@2_out_0)	voltage
	195	V(reset_31)	voltage
	196	V(select_31)	voltage
	197	V(out_1#0matrix_1@2_out_1)	voltage
	198	V(reset_30)	voltage
	199	V(select_30)	voltage
	200	V(out_2#0matrix_1@2_out_2)	voltage
	201	V(out_3#0matrix_1@2_out_3)	voltage
	202	V(reset_29)	voltage
	203	V(select_29)	voltage
	204	V(reset_28)	voltage
	205	V(select_28)	voltage
	206	V(out_4#0matrix_1@2_out_4)	voltage
	207	V(out_5#0matrix_1@2_out_5)	voltage
	208	V(out_6#0matrix_1@2_out_6)	voltage
	209	V(out_7#0matrix_1@2_out_7)	voltage
	210	V(reset_27)	voltage
	211	V(select_27)	voltage
	212	V(reset_26)	voltage
	213	V(select_26)	voltage
	214	V(reset_25)	voltage
	215	V(select_25)	voltage
	216	V(reset_24)	voltage
	217	V(select_24)	voltage
	218	V(out_8#0matrix_1@2_out_8)	voltage
	219	V(out_9#0matrix_1@2_out_9)	voltage
	220	V(out_10#0matrix_1@2_out_10)	voltage
	221	V(out_11#0matrix_1@2_out_11)	voltage
	222	V(out_12#0matrix_1@2_out_12)	voltage
	223	V(out_13#0matrix_1@2_out_13)	voltage
	224	V(out_14#0matrix_1@2_out_14)	voltage
	225	V(out_15#0matrix_1@2_out_15)	voltage
	226	V(reset_23)	voltage
	227	V(select_23)	voltage
	228	V(reset_22)	voltage
	229	V(select_22)	voltage
	230	V(reset_21)	voltage
	231	V(select_21)	voltage
	232	V(reset_20)	voltage
	233	V(select_20)	voltage
	234	V(reset_19)	voltage
	235	V(select_19)	voltage
	236	V(reset_18)	voltage
	237	V(select_18)	voltage
	238	V(reset_17)	voltage
	239	V(select_17)	voltage
	240	V(reset_16)	voltage
	241	V(select_16)	voltage
	242	V(out_16#0matrix_1@2_out_16)	voltage
	243	V(out_17#0matrix_1@2_out_17)	voltage
	244	V(out_18#0matrix_1@2_out_18)	voltage
	245	V(out_19#0matrix_1@2_out_19)	voltage
	246	V(out_20#0matrix_1@2_out_20)	voltage
	247	V(out_21#0matrix_1@2_out_21)	voltage
	248	V(out_22#0matrix_1@2_out_22)	voltage
	249	V(out_23#0matrix_1@2_out_23)	voltage
	250	V(out_24#0matrix_1@2_out_24)	voltage
	251	V(out_25#0matrix_1@2_out_25)	voltage
	252	V(out_26#0matrix_1@2_out_26)	voltage
	253	V(out_27#0matrix_1@2_out_27)	voltage
	254	V(out_28#0matrix_1@2_out_28)	voltage
	255	V(out_29#0matrix_1@2_out_29)	voltage
	256	V(out_30#0matrix_1@2_out_30)	voltage
	257	V(out_31#0matrix_1@2_out_31)	voltage
	258	V(reset_15)	voltage
	259	V(select_15)	voltage
	260	V(reset_14)	voltage
	261	V(select_14)	voltage
	262	V(reset_13)	voltage
	263	V(select_13)	voltage
	264	V(reset_12)	voltage
	265	V(select_12)	voltage
	266	V(reset_11)	voltage
	267	V(select_11)	voltage
	268	V(reset_10)	voltage
	269	V(select_10)	voltage
	270	V(reset_9)	voltage
	271	V(select_9)	voltage
	272	V(reset_8)	voltage
	273	V(select_8)	voltage
	274	V(reset_7)	voltage
	275	V(select_7)	voltage
	276	V(reset_6)	voltage
	277	V(select_6)	voltage
	278	V(reset_5)	voltage
	279	V(select_5)	voltage
	280	V(reset_4)	voltage
	281	V(select_4)	voltage
	282	V(reset_3)	voltage
	283	V(select_3)	voltage
	284	V(reset_2)	voltage
	285	V(select_2)	voltage
	286	V(reset_1)	voltage
	287	V(select_1)	voltage
	288	V(reset_0)	voltage
	289	V(select_0)	voltage
	290	V(out_32#0matrix_1@3_out_0)	voltage
	291	V(reset_31#0matrix_1@3_reset_31)	voltage
	292	V(select_31#0matrix_1@3_select_31)	voltage
	293	V(out_33#0matrix_1@3_out_1)	voltage
	294	V(reset_30#0matrix_1@3_reset_30)	voltage
	295	V(select_30#0matrix_1@3_select_30)	voltage
	296	V(out_34#0matrix_1@3_out_2)	voltage
	297	V(out_35#0matrix_1@3_out_3)	voltage
	298	V(reset_29#0matrix_1@3_reset_29)	voltage
	299	V(select_29#0matrix_1@3_select_29)	voltage
	300	V(reset_28#0matrix_1@3_reset_28)	voltage
	301	V(select_28#0matrix_1@3_select_28)	voltage
	302	V(out_36#0matrix_1@3_out_4)	voltage
	303	V(out_37#0matrix_1@3_out_5)	voltage
	304	V(out_38#0matrix_1@3_out_6)	voltage
	305	V(out_39#0matrix_1@3_out_7)	voltage
	306	V(reset_27#0matrix_1@3_reset_27)	voltage
	307	V(select_27#0matrix_1@3_select_27)	voltage
	308	V(reset_26#0matrix_1@3_reset_26)	voltage
	309	V(select_26#0matrix_1@3_select_26)	voltage
	310	V(reset_25#0matrix_1@3_reset_25)	voltage
	311	V(select_25#0matrix_1@3_select_25)	voltage
	312	V(reset_24#0matrix_1@3_reset_24)	voltage
	313	V(select_24#0matrix_1@3_select_24)	voltage
	314	V(out_40#0matrix_1@3_out_8)	voltage
	315	V(out_41#0matrix_1@3_out_9)	voltage
	316	V(out_42#0matrix_1@3_out_10)	voltage
	317	V(out_43#0matrix_1@3_out_11)	voltage
	318	V(out_44#0matrix_1@3_out_12)	voltage
	319	V(out_45#0matrix_1@3_out_13)	voltage
	320	V(out_46#0matrix_1@3_out_14)	voltage
	321	V(out_47#0matrix_1@3_out_15)	voltage
	322	V(reset_23#0matrix_1@3_reset_23)	voltage
	323	V(select_23#0matrix_1@3_select_23)	voltage
	324	V(reset_22#0matrix_1@3_reset_22)	voltage
	325	V(select_22#0matrix_1@3_select_22)	voltage
	326	V(reset_21#0matrix_1@3_reset_21)	voltage
	327	V(select_21#0matrix_1@3_select_21)	voltage
	328	V(reset_20#0matrix_1@3_reset_20)	voltage
	329	V(select_20#0matrix_1@3_select_20)	voltage
	330	V(reset_19#0matrix_1@3_reset_19)	voltage
	331	V(select_19#0matrix_1@3_select_19)	voltage
	332	V(reset_18#0matrix_1@3_reset_18)	voltage
	333	V(select_18#0matrix_1@3_select_18)	voltage
	334	V(reset_17#0matrix_1@3_reset_17)	voltage
	335	V(select_17#0matrix_1@3_select_17)	voltage
	336	V(reset_16#0matrix_1@3_reset_16)	voltage
	337	V(select_16#0matrix_1@3_select_16)	voltage
	338	V(out_48#0matrix_1@3_out_16)	voltage
	339	V(out_49#0matrix_1@3_out_17)	voltage
	340	V(out_50#0matrix_1@3_out_18)	voltage
	341	V(out_51#0matrix_1@3_out_19)	voltage
	342	V(out_52#0matrix_1@3_out_20)	voltage
	343	V(out_53#0matrix_1@3_out_21)	voltage
	344	V(out_54#0matrix_1@3_out_22)	voltage
	345	V(out_55#0matrix_1@3_out_23)	voltage
	346	V(out_56#0matrix_1@3_out_24)	voltage
	347	V(out_57#0matrix_1@3_out_25)	voltage
	348	V(out_58#0matrix_1@3_out_26)	voltage
	349	V(out_59#0matrix_1@3_out_27)	voltage
	350	V(out_60#0matrix_1@3_out_28)	voltage
	351	V(out_61#0matrix_1@3_out_29)	voltage
	352	V(out_62#0matrix_1@3_out_30)	voltage
	353	V(out_63#0matrix_1@3_out_31)	voltage
	354	V(reset_15#0matrix_1@3_reset_15)	voltage
	355	V(select_15#0matrix_1@3_select_15)	voltage
	356	V(reset_14#0matrix_1@3_reset_14)	voltage
	357	V(select_14#0matrix_1@3_select_14)	voltage
	358	V(reset_13#0matrix_1@3_reset_13)	voltage
	359	V(select_13#0matrix_1@3_select_13)	voltage
	360	V(reset_12#0matrix_1@3_reset_12)	voltage
	361	V(select_12#0matrix_1@3_select_12)	voltage
	362	V(reset_11#0matrix_1@3_reset_11)	voltage
	363	V(select_11#0matrix_1@3_select_11)	voltage
	364	V(reset_10#0matrix_1@3_reset_10)	voltage
	365	V(select_10#0matrix_1@3_select_10)	voltage
	366	V(reset_9#0matrix_1@3_reset_9)	voltage
	367	V(select_9#0matrix_1@3_select_9)	voltage
	368	V(reset_8#0matrix_1@3_reset_8)	voltage
	369	V(select_8#0matrix_1@3_select_8)	voltage
	370	V(reset_7#0matrix_1@3_reset_7)	voltage
	371	V(select_7#0matrix_1@3_select_7)	voltage
	372	V(reset_6#0matrix_1@3_reset_6)	voltage
	373	V(select_6#0matrix_1@3_select_6)	voltage
	374	V(reset_5#0matrix_1@3_reset_5)	voltage
	375	V(select_5#0matrix_1@3_select_5)	voltage
	376	V(reset_4#0matrix_1@3_reset_4)	voltage
	377	V(select_4#0matrix_1@3_select_4)	voltage
	378	V(reset_3#0matrix_1@3_reset_3)	voltage
	379	V(select_3#0matrix_1@3_select_3)	voltage
	380	V(reset_2#0matrix_1@3_reset_2)	voltage
	381	V(select_2#0matrix_1@3_select_2)	voltage
	382	V(reset_1#0matrix_1@3_reset_1)	voltage
	383	V(select_1#0matrix_1@3_select_1)	voltage
	384	V(reset_0#0matrix_1@3_reset_0)	voltage
	385	V(select_0#0matrix_1@3_select_0)	voltage
	386	V(out_0#1pixelv3@0_out)	voltage
	387	V(fd)	voltage
	388	V(reset)	voltage
	389	V(select)	voltage
	390	V(reset_0##0)	voltage
	391	V(reset_0##1)	voltage
	392	V(reset_0##2)	voltage
	393	V(select_0##0)	voltage
	394	V(select_0##1)	voltage
	395	V(select_0##2)	voltage
	396	V(reset_1##0)	voltage
	397	V(reset_1##1)	voltage
	398	V(reset_1##2)	voltage
	399	V(select_1##0)	voltage
	400	V(select_1##1)	voltage
	401	V(select_1##2)	voltage
	402	V(reset_2##0)	voltage
	403	V(reset_2##1)	voltage
	404	V(reset_2##2)	voltage
	405	V(select_2##0)	voltage
	406	V(select_2##1)	voltage
	407	V(select_2##2)	voltage
	408	V(reset_3##0)	voltage
	409	V(reset_3##1)	voltage
	410	V(reset_3##2)	voltage
	411	V(select_3##0)	voltage
	412	V(select_3##1)	voltage
	413	V(select_3##2)	voltage
	414	V(reset_4##0)	voltage
	415	V(reset_4##1)	voltage
	416	V(reset_4##2)	voltage
	417	V(select_4##0)	voltage
	418	V(select_4##1)	voltage
	419	V(select_4##2)	voltage
	420	V(reset_5##0)	voltage
	421	V(reset_5##1)	voltage
	422	V(reset_5##2)	voltage
	423	V(select_5##0)	voltage
	424	V(select_5##1)	voltage
	425	V(select_5##2)	voltage
	426	V(reset_6##0)	voltage
	427	V(reset_6##1)	voltage
	428	V(reset_6##2)	voltage
	429	V(select_6##0)	voltage
	430	V(select_6##1)	voltage
	431	V(select_6##2)	voltage
	432	V(reset_7##0)	voltage
	433	V(reset_7##1)	voltage
	434	V(reset_7##2)	voltage
	435	V(select_7##0)	voltage
	436	V(select_7##1)	voltage
	437	V(select_7##2)	voltage
	438	V(reset_8##0)	voltage
	439	V(reset_8##1)	voltage
	440	V(reset_8##2)	voltage
	441	V(select_8##0)	voltage
	442	V(select_8##1)	voltage
	443	V(select_8##2)	voltage
	444	V(reset_9##0)	voltage
	445	V(reset_9##1)	voltage
	446	V(reset_9##2)	voltage
	447	V(select_9##0)	voltage
	448	V(select_9##1)	voltage
	449	V(select_9##2)	voltage
	450	V(reset_10##0)	voltage
	451	V(reset_10##1)	voltage
	452	V(reset_10##2)	voltage
	453	V(select_10##0)	voltage
	454	V(select_10##1)	voltage
	455	V(select_10##2)	voltage
	456	V(reset_11##0)	voltage
	457	V(reset_11##1)	voltage
	458	V(reset_11##2)	voltage
	459	V(select_11##0)	voltage
	460	V(select_11##1)	voltage
	461	V(select_11##2)	voltage
	462	V(reset_12##0)	voltage
	463	V(reset_12##1)	voltage
	464	V(reset_12##2)	voltage
	465	V(select_12##0)	voltage
	466	V(select_12##1)	voltage
	467	V(select_12##2)	voltage
	468	V(reset_13##0)	voltage
	469	V(reset_13##1)	voltage
	470	V(reset_13##2)	voltage
	471	V(select_13##0)	voltage
	472	V(select_13##1)	voltage
	473	V(select_13##2)	voltage
	474	V(reset_14##0)	voltage
	475	V(reset_14##1)	voltage
	476	V(reset_14##2)	voltage
	477	V(select_14##0)	voltage
	478	V(select_14##1)	voltage
	479	V(select_14##2)	voltage
	480	V(reset_15##0)	voltage
	481	V(reset_15##1)	voltage
	482	V(reset_15##2)	voltage
	483	V(select_15##0)	voltage
	484	V(select_15##1)	voltage
	485	V(select_15##2)	voltage
	486	V(reset_16##0)	voltage
	487	V(reset_16##1)	voltage
	488	V(reset_16##2)	voltage
	489	V(select_16##0)	voltage
	490	V(select_16##1)	voltage
	491	V(select_16##2)	voltage
	492	V(reset_17##0)	voltage
	493	V(reset_17##1)	voltage
	494	V(reset_17##2)	voltage
	495	V(select_17##0)	voltage
	496	V(select_17##1)	voltage
	497	V(select_17##2)	voltage
	498	V(reset_18##0)	voltage
	499	V(reset_18##1)	voltage
	500	V(reset_18##2)	voltage
	501	V(select_18##0)	voltage
	502	V(select_18##1)	voltage
	503	V(select_18##2)	voltage
	504	V(reset_19##0)	voltage
	505	V(reset_19##1)	voltage
	506	V(reset_19##2)	voltage
	507	V(select_19##0)	voltage
	508	V(select_19##1)	voltage
	509	V(select_19##2)	voltage
	510	V(reset_20##0)	voltage
	511	V(reset_20##1)	voltage
	512	V(reset_20##2)	voltage
	513	V(select_20##0)	voltage
	514	V(select_20##1)	voltage
	515	V(select_20##2)	voltage
	516	V(reset_21##0)	voltage
	517	V(reset_21##1)	voltage
	518	V(reset_21##2)	voltage
	519	V(select_21##0)	voltage
	520	V(select_21##1)	voltage
	521	V(select_21##2)	voltage
	522	V(reset_22##0)	voltage
	523	V(reset_22##1)	voltage
	524	V(reset_22##2)	voltage
	525	V(select_22##0)	voltage
	526	V(select_22##1)	voltage
	527	V(select_22##2)	voltage
	528	V(reset_23##0)	voltage
	529	V(reset_23##1)	voltage
	530	V(reset_23##2)	voltage
	531	V(select_23##0)	voltage
	532	V(select_23##1)	voltage
	533	V(select_23##2)	voltage
	534	V(reset_24##0)	voltage
	535	V(reset_24##1)	voltage
	536	V(reset_24##2)	voltage
	537	V(select_24##0)	voltage
	538	V(select_24##1)	voltage
	539	V(select_24##2)	voltage
	540	V(reset_25##0)	voltage
	541	V(reset_25##1)	voltage
	542	V(reset_25##2)	voltage
	543	V(select_25##0)	voltage
	544	V(select_25##1)	voltage
	545	V(select_25##2)	voltage
	546	V(reset_26##0)	voltage
	547	V(reset_26##1)	voltage
	548	V(reset_26##2)	voltage
	549	V(select_26##0)	voltage
	550	V(select_26##1)	voltage
	551	V(select_26##2)	voltage
	552	V(reset_27##0)	voltage
	553	V(reset_27##1)	voltage
	554	V(reset_27##2)	voltage
	555	V(select_27##0)	voltage
	556	V(select_27##1)	voltage
	557	V(select_27##2)	voltage
	558	V(reset_28##0)	voltage
	559	V(reset_28##1)	voltage
	560	V(reset_28##2)	voltage
	561	V(select_28##0)	voltage
	562	V(select_28##1)	voltage
	563	V(select_28##2)	voltage
	564	V(reset_29##0)	voltage
	565	V(reset_29##1)	voltage
	566	V(reset_29##2)	voltage
	567	V(select_29##0)	voltage
	568	V(select_29##1)	voltage
	569	V(select_29##2)	voltage
	570	V(reset_30##0)	voltage
	571	V(reset_30##1)	voltage
	572	V(reset_30##2)	voltage
	573	V(select_30##0)	voltage
	574	V(select_30##1)	voltage
	575	V(select_30##2)	voltage
	576	V(select_31##0)	voltage
	577	V(select_31##1)	voltage
	578	V(select_31##2)	voltage
	579	V(reset_31##0)	voltage
	580	V(reset_31##1)	voltage
	581	V(reset_31##2)	voltage
	582	V(reset_32##0)	voltage
	583	V(reset_32##1)	voltage
	584	V(reset_32##2)	voltage
	585	V(select_32##0)	voltage
	586	V(select_32##1)	voltage
	587	V(select_32##2)	voltage
	588	V(reset_33##0)	voltage
	589	V(reset_33##1)	voltage
	590	V(reset_33##2)	voltage
	591	V(select_33##0)	voltage
	592	V(select_33##1)	voltage
	593	V(select_33##2)	voltage
	594	V(reset_34##0)	voltage
	595	V(reset_34##1)	voltage
	596	V(reset_34##2)	voltage
	597	V(select_34##0)	voltage
	598	V(select_34##1)	voltage
	599	V(select_34##2)	voltage
	600	V(reset_35##0)	voltage
	601	V(reset_35##1)	voltage
	602	V(reset_35##2)	voltage
	603	V(select_35##0)	voltage
	604	V(select_35##1)	voltage
	605	V(select_35##2)	voltage
	606	V(reset_36##0)	voltage
	607	V(reset_36##1)	voltage
	608	V(reset_36##2)	voltage
	609	V(select_36##0)	voltage
	610	V(select_36##1)	voltage
	611	V(select_36##2)	voltage
	612	V(reset_37##0)	voltage
	613	V(reset_37##1)	voltage
	614	V(reset_37##2)	voltage
	615	V(select_37##0)	voltage
	616	V(select_37##1)	voltage
	617	V(select_37##2)	voltage
	618	V(reset_38##0)	voltage
	619	V(reset_38##1)	voltage
	620	V(reset_38##2)	voltage
	621	V(select_38##0)	voltage
	622	V(select_38##1)	voltage
	623	V(select_38##2)	voltage
	624	V(reset_39##0)	voltage
	625	V(reset_39##1)	voltage
	626	V(reset_39##2)	voltage
	627	V(select_39##0)	voltage
	628	V(select_39##1)	voltage
	629	V(select_39##2)	voltage
	630	V(reset_40##0)	voltage
	631	V(reset_40##1)	voltage
	632	V(reset_40##2)	voltage
	633	V(select_40##0)	voltage
	634	V(select_40##1)	voltage
	635	V(select_40##2)	voltage
	636	V(reset_41##0)	voltage
	637	V(reset_41##1)	voltage
	638	V(reset_41##2)	voltage
	639	V(select_41##0)	voltage
	640	V(select_41##1)	voltage
	641	V(select_41##2)	voltage
	642	V(reset_42##0)	voltage
	643	V(reset_42##1)	voltage
	644	V(reset_42##2)	voltage
	645	V(select_42##0)	voltage
	646	V(select_42##1)	voltage
	647	V(select_42##2)	voltage
	648	V(reset_43##0)	voltage
	649	V(reset_43##1)	voltage
	650	V(reset_43##2)	voltage
	651	V(select_43##0)	voltage
	652	V(select_43##1)	voltage
	653	V(select_43##2)	voltage
	654	V(reset_44##0)	voltage
	655	V(reset_44##1)	voltage
	656	V(reset_44##2)	voltage
	657	V(select_44##0)	voltage
	658	V(select_44##1)	voltage
	659	V(select_44##2)	voltage
	660	V(reset_45##0)	voltage
	661	V(reset_45##1)	voltage
	662	V(reset_45##2)	voltage
	663	V(select_45##0)	voltage
	664	V(select_45##1)	voltage
	665	V(select_45##2)	voltage
	666	V(reset_46##0)	voltage
	667	V(reset_46##1)	voltage
	668	V(reset_46##2)	voltage
	669	V(select_46##0)	voltage
	670	V(select_46##1)	voltage
	671	V(select_46##2)	voltage
	672	V(reset_47##0)	voltage
	673	V(reset_47##1)	voltage
	674	V(reset_47##2)	voltage
	675	V(select_47##0)	voltage
	676	V(select_47##1)	voltage
	677	V(select_47##2)	voltage
	678	V(reset_48##0)	voltage
	679	V(reset_48##1)	voltage
	680	V(reset_48##2)	voltage
	681	V(select_48##0)	voltage
	682	V(select_48##1)	voltage
	683	V(select_48##2)	voltage
	684	V(reset_49##0)	voltage
	685	V(reset_49##1)	voltage
	686	V(reset_49##2)	voltage
	687	V(select_49##0)	voltage
	688	V(select_49##1)	voltage
	689	V(select_49##2)	voltage
	690	V(reset_50##0)	voltage
	691	V(reset_50##1)	voltage
	692	V(reset_50##2)	voltage
	693	V(select_50##0)	voltage
	694	V(select_50##1)	voltage
	695	V(select_50##2)	voltage
	696	V(reset_51##0)	voltage
	697	V(reset_51##1)	voltage
	698	V(reset_51##2)	voltage
	699	V(select_51##0)	voltage
	700	V(select_51##1)	voltage
	701	V(select_51##2)	voltage
	702	V(reset_52##0)	voltage
	703	V(reset_52##1)	voltage
	704	V(reset_52##2)	voltage
	705	V(select_52##0)	voltage
	706	V(select_52##1)	voltage
	707	V(select_52##2)	voltage
	708	V(reset_53##0)	voltage
	709	V(reset_53##1)	voltage
	710	V(reset_53##2)	voltage
	711	V(select_53##0)	voltage
	712	V(select_53##1)	voltage
	713	V(select_53##2)	voltage
	714	V(reset_54##0)	voltage
	715	V(reset_54##1)	voltage
	716	V(reset_54##2)	voltage
	717	V(select_54##0)	voltage
	718	V(select_54##1)	voltage
	719	V(select_54##2)	voltage
	720	V(reset_55##0)	voltage
	721	V(reset_55##1)	voltage
	722	V(reset_55##2)	voltage
	723	V(select_55##0)	voltage
	724	V(select_55##1)	voltage
	725	V(select_55##2)	voltage
	726	V(reset_56##0)	voltage
	727	V(reset_56##1)	voltage
	728	V(reset_56##2)	voltage
	729	V(select_56##0)	voltage
	730	V(select_56##1)	voltage
	731	V(select_56##2)	voltage
	732	V(reset_57##0)	voltage
	733	V(reset_57##1)	voltage
	734	V(reset_57##2)	voltage
	735	V(select_57##0)	voltage
	736	V(select_57##1)	voltage
	737	V(select_57##2)	voltage
	738	V(reset_58##0)	voltage
	739	V(reset_58##1)	voltage
	740	V(reset_58##2)	voltage
	741	V(select_58##0)	voltage
	742	V(select_58##1)	voltage
	743	V(select_58##2)	voltage
	744	V(reset_59##0)	voltage
	745	V(reset_59##1)	voltage
	746	V(reset_59##2)	voltage
	747	V(select_59##0)	voltage
	748	V(select_59##1)	voltage
	749	V(select_59##2)	voltage
	750	V(reset_60##0)	voltage
	751	V(reset_60##1)	voltage
	752	V(reset_60##2)	voltage
	753	V(select_60##0)	voltage
	754	V(select_60##1)	voltage
	755	V(select_60##2)	voltage
	756	V(reset_61##0)	voltage
	757	V(reset_61##1)	voltage
	758	V(reset_61##2)	voltage
	759	V(select_61##0)	voltage
	760	V(select_61##1)	voltage
	761	V(select_61##2)	voltage
	762	V(reset_62##0)	voltage
	763	V(reset_62##1)	voltage
	764	V(reset_62##2)	voltage
	765	V(select_62##0)	voltage
	766	V(select_62##1)	voltage
	767	V(select_62##2)	voltage
	768	V(select_63##0)	voltage
	769	V(select_63##1)	voltage
	770	V(select_63##2)	voltage
	771	V(reset_63##0)	voltage
	772	V(reset_63##1)	voltage
	773	V(reset_63##2)	voltage
	774	V(out_0#0matrix_1@2_out_0##0)	voltage
	775	V(out_0#0matrix_1@2_out_0##1)	voltage
	776	V(out_0#0matrix_1@2_out_0##2)	voltage
	777	V(out_1#0matrix_1@2_out_1##0)	voltage
	778	V(out_1#0matrix_1@2_out_1##1)	voltage
	779	V(out_1#0matrix_1@2_out_1##2)	voltage
	780	V(out_2#0matrix_1@2_out_2##0)	voltage
	781	V(out_2#0matrix_1@2_out_2##1)	voltage
	782	V(out_2#0matrix_1@2_out_2##2)	voltage
	783	V(out_3##0)	voltage
	784	V(out_3##1)	voltage
	785	V(out_3##2)	voltage
	786	V(out_4#0matrix_1@2_out_4##0)	voltage
	787	V(out_4#0matrix_1@2_out_4##1)	voltage
	788	V(out_4#0matrix_1@2_out_4##2)	voltage
	789	V(out_5##0)	voltage
	790	V(out_5##1)	voltage
	791	V(out_5##2)	voltage
	792	V(out_6#0matrix_1@2_out_6##0)	voltage
	793	V(out_6#0matrix_1@2_out_6##1)	voltage
	794	V(out_6#0matrix_1@2_out_6##2)	voltage
	795	V(out_7##0)	voltage
	796	V(out_7##1)	voltage
	797	V(out_7##2)	voltage
	798	V(out_8##0)	voltage
	799	V(out_8##1)	voltage
	800	V(out_8##2)	voltage
	801	V(out_9#0matrix_1@2_out_9##0)	voltage
	802	V(out_9#0matrix_1@2_out_9##1)	voltage
	803	V(out_9#0matrix_1@2_out_9##2)	voltage
	804	V(out_10##0)	voltage
	805	V(out_10##1)	voltage
	806	V(out_10##2)	voltage
	807	V(out_11#0matrix_1@2_out_11##0)	voltage
	808	V(out_11#0matrix_1@2_out_11##1)	voltage
	809	V(out_11#0matrix_1@2_out_11##2)	voltage
	810	V(out_12##0)	voltage
	811	V(out_12##1)	voltage
	812	V(out_12##2)	voltage
	813	V(out_13#0matrix_1@2_out_13##0)	voltage
	814	V(out_13#0matrix_1@2_out_13##1)	voltage
	815	V(out_13#0matrix_1@2_out_13##2)	voltage
	816	V(out_14##0)	voltage
	817	V(out_14##1)	voltage
	818	V(out_14##2)	voltage
	819	V(out_15#0matrix_1@2_out_15##0)	voltage
	820	V(out_15#0matrix_1@2_out_15##1)	voltage
	821	V(out_15#0matrix_1@2_out_15##2)	voltage
	822	V(out_16##0)	voltage
	823	V(out_16##1)	voltage
	824	V(out_16##2)	voltage
	825	V(out_17#0matrix_1@2_out_17##0)	voltage
	826	V(out_17#0matrix_1@2_out_17##1)	voltage
	827	V(out_17#0matrix_1@2_out_17##2)	voltage
	828	V(out_18##0)	voltage
	829	V(out_18##1)	voltage
	830	V(out_18##2)	voltage
	831	V(out_19#0matrix_1@2_out_19##0)	voltage
	832	V(out_19#0matrix_1@2_out_19##1)	voltage
	833	V(out_19#0matrix_1@2_out_19##2)	voltage
	834	V(out_20#0matrix_1@2_out_20##0)	voltage
	835	V(out_20#0matrix_1@2_out_20##1)	voltage
	836	V(out_20#0matrix_1@2_out_20##2)	voltage
	837	V(out_21##0)	voltage
	838	V(out_21##1)	voltage
	839	V(out_21##2)	voltage
	840	V(out_22#0matrix_1@2_out_22##0)	voltage
	841	V(out_22#0matrix_1@2_out_22##1)	voltage
	842	V(out_22#0matrix_1@2_out_22##2)	voltage
	843	V(out_23##0)	voltage
	844	V(out_23##1)	voltage
	845	V(out_23##2)	voltage
	846	V(out_24#0matrix_1@2_out_24##0)	voltage
	847	V(out_24#0matrix_1@2_out_24##1)	voltage
	848	V(out_24#0matrix_1@2_out_24##2)	voltage
	849	V(out_25##0)	voltage
	850	V(out_25##1)	voltage
	851	V(out_25##2)	voltage
	852	V(out_26#0matrix_1@2_out_26##0)	voltage
	853	V(out_26#0matrix_1@2_out_26##1)	voltage
	854	V(out_26#0matrix_1@2_out_26##2)	voltage
	855	V(out_27##0)	voltage
	856	V(out_27##1)	voltage
	857	V(out_27##2)	voltage
	858	V(out_28##0)	voltage
	859	V(out_28##1)	voltage
	860	V(out_28##2)	voltage
	861	V(out_29#0matrix_1@2_out_29##0)	voltage
	862	V(out_29#0matrix_1@2_out_29##1)	voltage
	863	V(out_29#0matrix_1@2_out_29##2)	voltage
	864	V(out_30##0)	voltage
	865	V(out_30##1)	voltage
	866	V(out_30##2)	voltage
	867	V(out_31#0matrix_1@2_out_31##0)	voltage
	868	V(out_31#0matrix_1@2_out_31##1)	voltage
	869	V(out_31#0matrix_1@2_out_31##2)	voltage
	870	V(out_32##0)	voltage
	871	V(out_32##1)	voltage
	872	V(out_32##2)	voltage
	873	V(out_33#0matrix_1@3_out_1##0)	voltage
	874	V(out_33#0matrix_1@3_out_1##1)	voltage
	875	V(out_33#0matrix_1@3_out_1##2)	voltage
	876	V(out_34##0)	voltage
	877	V(out_34##1)	voltage
	878	V(out_34##2)	voltage
	879	V(out_35#0matrix_1@3_out_3##0)	voltage
	880	V(out_35#0matrix_1@3_out_3##1)	voltage
	881	V(out_35#0matrix_1@3_out_3##2)	voltage
	882	V(out_36##0)	voltage
	883	V(out_36##1)	voltage
	884	V(out_36##2)	voltage
	885	V(out_37#0matrix_1@3_out_5##0)	voltage
	886	V(out_37#0matrix_1@3_out_5##1)	voltage
	887	V(out_37#0matrix_1@3_out_5##2)	voltage
	888	V(out_38##0)	voltage
	889	V(out_38##1)	voltage
	890	V(out_38##2)	voltage
	891	V(out_39#0matrix_1@3_out_7##0)	voltage
	892	V(out_39#0matrix_1@3_out_7##1)	voltage
	893	V(out_39#0matrix_1@3_out_7##2)	voltage
	894	V(out_40##0)	voltage
	895	V(out_40##1)	voltage
	896	V(out_40##2)	voltage
	897	V(out_41#0matrix_1@3_out_9##0)	voltage
	898	V(out_41#0matrix_1@3_out_9##1)	voltage
	899	V(out_41#0matrix_1@3_out_9##2)	voltage
	900	V(out_42##0)	voltage
	901	V(out_42##1)	voltage
	902	V(out_42##2)	voltage
	903	V(out_43#0matrix_1@3_out_11##0)	voltage
	904	V(out_43#0matrix_1@3_out_11##1)	voltage
	905	V(out_43#0matrix_1@3_out_11##2)	voltage
	906	V(out_44##0)	voltage
	907	V(out_44##1)	voltage
	908	V(out_44##2)	voltage
	909	V(out_45#0matrix_1@3_out_13##0)	voltage
	910	V(out_45#0matrix_1@3_out_13##1)	voltage
	911	V(out_45#0matrix_1@3_out_13##2)	voltage
	912	V(out_46##0)	voltage
	913	V(out_46##1)	voltage
	914	V(out_46##2)	voltage
	915	V(out_47#0matrix_1@3_out_15##0)	voltage
	916	V(out_47#0matrix_1@3_out_15##1)	voltage
	917	V(out_47#0matrix_1@3_out_15##2)	voltage
	918	V(out_48##0)	voltage
	919	V(out_48##1)	voltage
	920	V(out_48##2)	voltage
	921	V(out_49#0matrix_1@3_out_17##0)	voltage
	922	V(out_49#0matrix_1@3_out_17##1)	voltage
	923	V(out_49#0matrix_1@3_out_17##2)	voltage
	924	V(out_50#0matrix_1@3_out_18##0)	voltage
	925	V(out_50#0matrix_1@3_out_18##1)	voltage
	926	V(out_50#0matrix_1@3_out_18##2)	voltage